ITEM: TIMESTEP
1
ITEM: NUMBER OF ATOMS
60000
ITEM: BOX BOUNDS pp pp pp
-2.0364350133647516e+01 2.0364350133647516e+01
-2.0364350133647516e+01 2.0364350133647516e+01
-2.0364350133647516e+01 2.0364350133647516e+01
ITEM: ATOMS id mol type q xs ys zs ix iy iz
1 1 1 0 0.640634 0.878486 0.0723767 0 0 1
2 1 1 0 0.643023 0.855465 0.0682392 0 0 1
3 1 1 0 0.620932 0.849662 0.0567665 0 0 1
4 1 1 0 0.620465 0.826461 0.0479622 0 0 1
5 1 1 0 0.633719 0.843583 0.0358129 0 0 1
6 1 1 0 0.654965 0.854305 0.0347229 0 0 1
7 1 1 0 0.659258 0.83981 0.0555961 0 0 1
8 1 1 0 0.668217 0.860848 0.0566393 0 0 1
9 1 1 0 0.657655 0.88064 0.0506412 0 0 1
10 1 1 0 0.663672 0.904147 0.050195 0 0 1
11 1 1 0 0.654329 0.927856 0.0474504 0 0 1
12 1 1 0 0.661841 0.928719 0.0251595 0 0 1
13 1 1 0 0.661453 0.951119 0.0295273 0 0 1
14 1 1 0 0.67641 0.967269 0.0222944 0 0 1
15 1 1 0 0.684874 0.981939 0.00533801 0 0 1
16 1 1 0 0.699963 0.998445 0.997541 0 0 0
17 1 1 0 0.713491 0.0171805 0.00589554 0 1 1
18 1 1 0 0.731517 0.0329704 0.00324524 0 1 1
19 1 1 0 0.719446 0.036809 0.0227646 0 1 1
20 1 1 0 0.716997 0.0189872 0.0384465 0 1 1
21 1 1 0 0.738929 0.0279935 0.0479668 0 1 1
22 1 1 0 0.73228 0.0507748 0.0395836 0 1 1
23 1 1 0 0.738687 0.0519201 0.0614853 0 1 1
24 1 1 0 0.754766 0.0693494 0.0626298 0 1 1
25 1 1 0 0.750617 0.0843884 0.0821725 0 1 1
26 1 1 0 0.770065 0.0924425 0.0917113 0 1 1
27 1 1 0 0.753503 0.105252 0.105277 0 1 1
28 1 1 0 0.739513 0.0892288 0.116084 0 1 1
29 1 1 0 0.755331 0.0754494 0.105464 0 1 1
30 1 1 0 0.77692 0.0647505 0.103974 0 1 1
31 1 1 0 0.798558 0.0560267 0.0974175 0 1 1
32 1 1 0 0.800335 0.0604036 0.120985 0 1 1
33 1 1 0 0.778034 0.0538284 0.126096 0 1 1
34 1 1 0 0.778847 0.0777925 0.125911 0 1 1
35 1 1 0 0.774756 0.100212 0.123177 0 1 1
36 1 1 0 0.795955 0.110376 0.127203 0 1 1
37 1 1 0 0.818657 0.120149 0.124586 0 1 1
38 1 1 0 0.826293 0.110955 0.104495 0 1 1
39 1 1 0 0.802835 0.109293 0.098668 0 1 1
40 1 1 0 0.794798 0.127557 0.0863298 0 1 1
41 1 1 0 0.803917 0.126127 0.0655534 0 1 1
42 1 1 0 0.790847 0.10772 0.0648208 0 1 1
43 1 1 0 0.771186 0.116828 0.0745208 0 1 1
44 1 1 0 0.758706 0.123247 0.0555933 0 1 1
45 1 1 0 0.776716 0.122055 0.0397968 0 1 1
46 1 1 0 0.777021 0.0987101 0.0426086 0 1 1
47 1 1 0 0.778819 0.0834301 0.0631113 0 1 1
48 1 1 0 0.79719 0.0877607 0.0519937 0 1 1
49 1 1 0 0.812506 0.089047 0.0711695 0 1 1
50 1 1 0 0.81868 0.101639 0.0529576 0 1 1
51 1 1 0 0.832476 0.0832694 0.0464385 0 1 1
52 1 1 0 0.834622 0.0956147 0.0261125 0 1 1
53 1 1 0 0.813902 0.0830262 0.0252394 0 1 1
54 1 1 0 0.79651 0.0992444 0.02289 0 1 1
55 1 1 0 0.800657 0.11588 0.0419073 0 1 1
56 1 1 0 0.794116 0.13067 0.0245551 0 1 1
57 1 1 0 0.810652 0.141545 0.0120153 0 1 1
58 1 1 0 0.8177 0.122495 0.022129 0 1 1
59 1 1 0 0.803668 0.116966 0.0033297 0 1 1
60 1 1 0 0.803343 0.136073 0.988772 0 1 0
61 2 1 0 0.263439 0.0208705 0.00390562 1 1 1
62 2 1 0 0.285807 0.0161438 0.996262 1 1 0
63 2 1 0 0.297363 0.998685 0.987072 1 0 0
64 2 1 0 0.277982 0.992179 0.974263 1 0 0
65 2 1 0 0.290759 0.995475 0.955097 1 0 0
66 2 1 0 0.274566 0.983908 0.941964 1 0 0
67 2 1 0 0.274613 0.00792355 0.937665 1 1 0
68 2 1 0 0.272177 0.0161996 0.959556 1 1 0
69 2 1 0 0.278926 0.0323232 0.973591 1 1 0
70 2 1 0 0.254696 0.0319957 0.975995 1 1 0
71 2 1 0 0.247057 0.053327 0.981429 1 1 0
72 2 1 0 0.244113 0.0609918 0.959018 1 1 0
73 2 1 0 0.231744 0.0771253 0.949096 1 1 0
74 2 1 0 0.213963 0.0802883 0.932634 1 1 0
75 2 1 0 0.231525 0.0950037 0.930924 1 1 0
76 2 1 0 0.235765 0.112386 0.915947 1 1 0
77 2 1 0 0.239389 0.125856 0.935532 1 1 0
78 2 1 0 0.261071 0.124075 0.947069 1 1 0
79 2 1 0 0.241818 0.112382 0.954423 1 1 0
80 2 1 0 0.219323 0.107014 0.957123 1 1 0
81 2 1 0 0.206177 0.104689 0.939052 1 1 0
82 2 1 0 0.211331 0.126245 0.931598 1 1 0
83 2 1 0 0.220313 0.13329 0.911304 1 1 0
84 2 1 0 0.207887 0.11389 0.90637 1 1 0
85 2 1 0 0.187643 0.106176 0.917823 1 1 0
86 2 1 0 0.1762 0.119143 0.933651 1 1 0
87 2 1 0 0.158449 0.122628 0.920548 1 1 0
88 2 1 0 0.162839 0.141468 0.932553 1 1 0
89 2 1 0 0.140613 0.150748 0.928848 1 1 0
90 2 1 0 0.124972 0.13334 0.927358 1 1 0
91 2 1 0 0.140872 0.124 0.940355 1 1 0
92 2 1 0 0.141345 0.14346 0.952622 1 1 0
93 2 1 0 0.149093 0.13797 0.973337 1 1 0
94 2 1 0 0.140763 0.118331 0.982865 1 1 0
95 2 1 0 0.148843 0.0957564 0.983544 1 1 0
96 2 1 0 0.145418 0.104337 0.961127 1 1 0
97 2 1 0 0.163537 0.118891 0.956195 1 1 0
98 2 1 0 0.167255 0.114493 0.978908 1 1 0
99 2 1 0 0.188405 0.123493 0.979056 1 1 0
100 2 1 0 0.20589 0.136564 0.988818 1 1 0
101 2 1 0 0.219857 0.137636 0.969862 1 1 0
102 2 1 0 0.243244 0.133152 0.969877 1 1 0
103 2 1 0 0.242391 0.132737 0.993825 1 1 0
104 2 1 0 0.227957 0.12267 0.00972125 1 1 1
105 2 1 0 0.228305 0.141564 0.0250052 1 1 1
106 2 1 0 0.238316 0.149548 0.0440595 1 1 1
107 2 1 0 0.226293 0.149388 0.0631119 1 1 1
108 2 1 0 0.209612 0.133361 0.0686509 1 1 1
109 2 1 0 0.225677 0.12743 0.0520451 1 1 1
110 2 1 0 0.231312 0.122192 0.0746828 1 1 1
111 2 1 0 0.23501 0.100031 0.0778891 1 1 1
112 2 1 0 0.214706 0.0906003 0.0826504 1 1 1
113 2 1 0 0.227379 0.0833778 0.100983 1 1 1
114 2 1 0 0.241722 0.0696878 0.088453 1 1 1
115 2 1 0 0.261814 0.0658059 0.0790119 1 1 1
116 2 1 0 0.264578 0.0773456 0.100137 1 1 1
117 2 1 0 0.285808 0.0756367 0.107913 1 1 1
118 2 1 0 0.275576 0.0799451 0.128469 1 1 1
119 2 1 0 0.291754 0.0981751 0.137975 1 1 1
120 2 1 0 0.312379 0.089506 0.145493 1 1 1
121 3 1 0 0.98847 0.840216 0.243678 0 0 1
122 3 1 0 0.978132 0.820112 0.239062 0 0 1
123 3 1 0 0.965384 0.802481 0.232222 0 0 1
124 3 1 0 0.971998 0.801254 0.20916 0 0 1
125 3 1 0 0.965103 0.820025 0.196059 0 0 1
126 3 1 0 0.957898 0.842341 0.202761 0 0 1
127 3 1 0 0.936337 0.851427 0.20062 0 0 1
128 3 1 0 0.947873 0.850212 0.179616 0 0 1
129 3 1 0 0.939542 0.871076 0.187107 0 0 1
130 3 1 0 0.921907 0.858711 0.17682 0 0 1
131 3 1 0 0.913752 0.881086 0.180137 0 0 1
132 3 1 0 0.897159 0.869066 0.168888 0 0 1
133 3 1 0 0.914718 0.86457 0.151561 0 0 1
134 3 1 0 0.899845 0.846966 0.144177 0 0 1
135 3 1 0 0.877769 0.846232 0.154534 0 0 1
136 3 1 0 0.864966 0.827267 0.159914 0 0 1
137 3 1 0 0.876972 0.827944 0.138815 0 0 1
138 3 1 0 0.88617 0.843533 0.122489 0 0 1
139 3 1 0 0.875794 0.860735 0.135108 0 0 1
140 3 1 0 0.865965 0.874477 0.118766 0 0 1
141 3 1 0 0.858617 0.874197 0.0968256 0 0 1
142 3 1 0 0.83593 0.876951 0.0983056 0 0 1
143 3 1 0 0.839984 0.879514 0.122021 0 0 1
144 3 1 0 0.841613 0.857871 0.113753 0 0 1
145 3 1 0 0.835587 0.849322 0.0917071 0 0 1
146 3 1 0 0.838563 0.836464 0.071864 0 0 1
147 3 1 0 0.856646 0.852814 0.0782821 0 0 1
148 3 1 0 0.87737 0.851115 0.0873102 0 0 1
149 3 1 0 0.892856 0.868656 0.0842419 0 0 1
150 3 1 0 0.897494 0.871807 0.0610357 0 0 1
151 3 1 0 0.903763 0.893736 0.0550086 0 0 1
152 3 1 0 0.915197 0.893483 0.0347021 0 0 1
153 3 1 0 0.924654 0.87471 0.0470086 0 0 1
154 3 1 0 0.914726 0.857777 0.0327348 0 0 1
155 3 1 0 0.933086 0.848699 0.0445335 0 0 1
156 3 1 0 0.929027 0.833465 0.0258067 0 0 1
157 3 1 0 0.945829 0.83577 0.00848471 0 0 1
158 3 1 0 0.968418 0.82836 0.0143046 0 0 1
159 3 1 0 0.953223 0.811043 0.0230195 0 0 1
160 3 1 0 0.960492 0.803192 0.00219777 0 0 1
161 3 1 0 0.942186 0.81419 0.992958 0 0 0
162 3 1 0 0.957204 0.830133 0.983534 0 0 0
163 3 1 0 0.965338 0.850537 0.994322 0 0 0
164 3 1 0 0.962422 0.871692 0.00351149 0 0 1
165 3 1 0 0.96819 0.877541 0.0247314 0 0 1
166 3 1 0 0.97378 0.902107 0.0270746 0 0 1
167 3 1 0 0.959588 0.911081 0.0460752 0 0 1
168 3 1 0 0.958839 0.928083 0.0293573 0 0 1
169 3 1 0 0.948295 0.940068 0.0446102 0 0 1
170 3 1 0 0.967805 0.933067 0.0566447 0 0 1
171 3 1 0 0.968839 0.935974 0.0811548 0 0 1
172 3 1 0 0.962293 0.920626 0.0993619 0 0 1
173 3 1 0 0.959279 0.896725 0.0990073 0 0 1
174 3 1 0 0.978348 0.882829 0.101103 0 0 1
175 3 1 0 0.98694 0.862056 0.0953806 0 0 1
176 3 1 0 0.00108163 0.874681 0.0820004 1 0 1
177 3 1 0 0.013446 0.879591 0.101108 1 0 1
178 3 1 0 0.00874302 0.856888 0.101725 1 0 1
179 3 1 0 0.00620785 0.850575 0.0801311 1 0 1
180 3 1 0 0.988916 0.854739 0.0638587 0 0 1
181 4 1 0 0.513261 0.0951888 0.293009 1 1 0
182 4 1 0 0.517569 0.0908281 0.270463 1 1 0
183 4 1 0 0.497632 0.0868604 0.260241 1 1 0
184 4 1 0 0.499427 0.0649199 0.270937 1 1 0
185 4 1 0 0.483356 0.0665598 0.287903 1 1 0
186 4 1 0 0.492722 0.0492508 0.302885 1 1 0
187 4 1 0 0.471945 0.0562314 0.309262 1 1 0
188 4 1 0 0.463764 0.0783142 0.312239 1 1 0
189 4 1 0 0.444135 0.0858159 0.321324 1 1 0
190 4 1 0 0.422677 0.0950342 0.317238 1 1 0
191 4 1 0 0.410129 0.0863842 0.335037 1 1 0
192 4 1 0 0.431227 0.081292 0.341189 1 1 0
193 4 1 0 0.426695 0.0653793 0.358536 1 1 0
194 4 1 0 0.442122 0.0490826 0.350623 1 1 0
195 4 1 0 0.443686 0.0291671 0.363698 1 1 0
196 4 1 0 0.422689 0.031196 0.373067 1 1 0
197 4 1 0 0.433021 0.0508015 0.381372 1 1 0
198 4 1 0 0.432939 0.0746008 0.381639 1 1 0
199 4 1 0 0.431966 0.0784352 0.40543 1 1 0
200 4 1 0 0.436021 0.100513 0.41232 1 1 0
201 4 1 0 0.455156 0.108152 0.398943 1 1 0
202 4 1 0 0.442221 0.122711 0.383933 1 1 0
203 4 1 0 0.446408 0.106581 0.366102 1 1 0
204 4 1 0 0.427794 0.0933558 0.363647 1 1 0
205 4 1 0 0.428617 0.0988406 0.385267 1 1 0
206 4 1 0 0.417972 0.11473 0.371999 1 1 0
207 4 1 0 0.410916 0.107817 0.349532 1 1 0
208 4 1 0 0.391681 0.107167 0.335441 1 1 0
209 4 1 0 0.371985 0.113067 0.349074 1 1 0
210 4 1 0 0.351125 0.106011 0.340222 1 1 0
211 4 1 0 0.332894 0.098706 0.354113 1 1 0
212 4 1 0 0.313807 0.0872932 0.360667 1 1 0
213 4 1 0 0.314547 0.103339 0.377861 1 1 0
214 4 1 0 0.311931 0.105061 0.401773 1 1 0
215 4 1 0 0.331427 0.117947 0.399409 1 1 0
216 4 1 0 0.327351 0.116628 0.423887 1 1 0
217 4 1 0 0.316361 0.103224 0.438707 1 1 0
218 4 1 0 0.294556 0.099973 0.448711 1 1 0
219 4 1 0 0.292712 0.0771855 0.442308 1 1 0
220 4 1 0 0.316737 0.0755199 0.441802 1 1 0
221 4 1 0 0.305681 0.0780014 0.420519 1 1 0
222 4 1 0 0.291884 0.0955605 0.424041 1 1 0
223 4 1 0 0.278631 0.0981917 0.404085 1 1 0
224 4 1 0 0.289127 0.101215 0.381061 1 1 0
225 4 1 0 0.28448 0.084732 0.363877 1 1 0
226 4 1 0 0.267889 0.0825006 0.380384 1 1 0
227 4 1 0 0.276541 0.0719179 0.40113 1 1 0
228 4 1 0 0.295825 0.0799788 0.392863 1 1 0
229 4 1 0 0.317937 0.0818632 0.398563 1 1 0
230 4 1 0 0.342116 0.0767273 0.389912 1 1 0
231 4 1 0 0.340736 0.0994998 0.381795 1 1 0
232 4 1 0 0.359561 0.105488 0.368919 1 1 0
233 4 1 0 0.351707 0.124027 0.382609 1 1 0
234 4 1 0 0.374152 0.125964 0.378473 1 1 0
235 4 1 0 0.369967 0.112749 0.398144 1 1 0
236 4 1 0 0.38164 0.0934555 0.403168 1 1 0
237 4 1 0 0.370281 0.0802628 0.386457 1 1 0
238 4 1 0 0.389811 0.0669094 0.381656 1 1 0
239 4 1 0 0.383793 0.0569638 0.36077 1 1 0
240 4 1 0 0.364562 0.055931 0.375325 1 1 0
241 5 1 0 0.729539 0.938456 0.5634 0 0 0
242 5 1 0 0.746852 0.953912 0.563311 0 0 0
243 5 1 0 0.764001 0.959021 0.54715 0 0 0
244 5 1 0 0.777692 0.947251 0.532196 0 0 0
245 5 1 0 0.783503 0.943322 0.556298 0 0 0
246 5 1 0 0.764252 0.93401 0.568482 0 0 0
247 5 1 0 0.746281 0.923272 0.582252 0 0 0
248 5 1 0 0.759905 0.932089 0.59853 0 0 0
249 5 1 0 0.734859 0.93914 0.600823 0 0 0
250 5 1 0 0.733192 0.96198 0.608336 0 0 0
251 5 1 0 0.744884 0.957051 0.587656 0 0 0
252 5 1 0 0.760121 0.963403 0.604792 0 0 0
253 5 1 0 0.769307 0.985244 0.607417 0 0 0
254 5 1 0 0.767523 0.997182 0.586347 0 0 0
255 5 1 0 0.750087 0.0113476 0.594453 0 1 0
256 5 1 0 0.743117 0.987872 0.596675 0 0 0
257 5 1 0 0.726254 0.998457 0.582289 0 0 0
258 5 1 0 0.718366 0.975997 0.588094 0 0 0
259 5 1 0 0.718586 0.953031 0.586767 0 0 0
260 5 1 0 0.702141 0.942465 0.571158 0 0 0
261 5 1 0 0.69286 0.964553 0.574066 0 0 0
262 5 1 0 0.712941 0.963901 0.562505 0 0 0
263 5 1 0 0.728822 0.979597 0.564524 0 0 0
264 5 1 0 0.718364 0.986944 0.545061 0 0 0
265 5 1 0 0.739814 0.99815 0.54391 0 0 0
266 5 1 0 0.749068 0.998762 0.566117 0 0 0
267 5 1 0 0.752797 0.977017 0.573761 0 0 0
268 5 1 0 0.776355 0.981999 0.569851 0 0 0
269 5 1 0 0.779928 0.958003 0.578306 0 0 0
270 5 1 0 0.79506 0.961277 0.595177 0 0 0
271 5 1 0 0.794831 0.938155 0.587802 0 0 0
272 5 1 0 0.804275 0.951979 0.571159 0 0 0
273 5 1 0 0.799701 0.974904 0.575587 0 0 0
274 5 1 0 0.823579 0.973092 0.576232 0 0 0
275 5 1 0 0.835719 0.966912 0.557537 0 0 0
276 5 1 0 0.832245 0.960297 0.536628 0 0 0
277 5 1 0 0.828896 0.982799 0.535672 0 0 0
278 5 1 0 0.842808 0.997555 0.524512 0 0 0
279 5 1 0 0.8648 0.996953 0.514953 0 0 0
280 5 1 0 0.864655 0.977031 0.503074 0 0 0
281 5 1 0 0.865123 0.996387 0.489751 0 0 0
282 5 1 0 0.881669 0.0096587 0.496845 0 1 0
283 5 1 0 0.890692 0.989058 0.504932 0 0 0
284 5 1 0 0.895815 0.967687 0.514091 0 0 0
285 5 1 0 0.909004 0.960388 0.534943 0 0 0
286 5 1 0 0.92576 0.953526 0.520268 0 0 0
287 5 1 0 0.935148 0.954975 0.543739 0 0 0
288 5 1 0 0.92769 0.9465 0.563483 0 0 0
289 5 1 0 0.91651 0.967369 0.563216 0 0 0
290 5 1 0 0.924829 0.980102 0.54647 0 0 0
291 5 1 0 0.909466 0.996615 0.544548 0 0 0
292 5 1 0 0.9047 0.993585 0.568055 0 0 0
293 5 1 0 0.911124 0.00366864 0.590576 0 1 0
294 5 1 0 0.907857 0.0252524 0.598615 0 1 0
295 5 1 0 0.919701 0.0152526 0.615142 0 1 0
296 5 1 0 0.938382 0.000513592 0.608831 0 1 0
297 5 1 0 0.961344 0.99752 0.606388 0 0 0
298 5 1 0 0.95461 0.0153667 0.624817 0 1 0
299 5 1 0 0.966766 0.0351904 0.627391 0 1 0
300 5 1 0 0.974254 0.0243124 0.60872 0 1 0
301 6 1 0 0.668099 0.963233 0.429288 0 0 1
302 6 1 0 0.662944 0.942147 0.436922 0 0 1
303 6 1 0 0.653023 0.934686 0.456715 0 0 1
304 6 1 0 0.665663 0.955527 0.460427 0 0 1
305 6 1 0 0.672369 0.937472 0.472783 0 0 1
306 6 1 0 0.678034 0.927728 0.451675 0 0 1
307 6 1 0 0.685319 0.928613 0.428386 0 0 1
308 6 1 0 0.686814 0.919546 0.405576 0 0 1
309 6 1 0 0.705465 0.919132 0.390649 0 0 1
310 6 1 0 0.710549 0.925521 0.412224 0 0 1
311 6 1 0 0.714919 0.90233 0.407892 0 0 1
312 6 1 0 0.697865 0.88556 0.41418 0 0 1
313 6 1 0 0.680485 0.882141 0.399917 0 0 1
314 6 1 0 0.658604 0.88032 0.406048 0 0 1
315 6 1 0 0.660593 0.897272 0.389171 0 0 1
316 6 1 0 0.639523 0.905305 0.394037 0 0 1
317 6 1 0 0.637349 0.882792 0.390921 0 0 1
318 6 1 0 0.622181 0.86621 0.394847 0 0 1
319 6 1 0 0.602556 0.873958 0.386633 0 0 1
320 6 1 0 0.617009 0.891575 0.38375 0 0 1
321 6 1 0 0.630798 0.905182 0.369939 0 0 1
322 6 1 0 0.63147 0.924547 0.356781 0 0 1
323 6 1 0 0.615729 0.93001 0.37182 0 0 1
324 6 1 0 0.595467 0.940247 0.366318 0 0 1
325 6 1 0 0.585833 0.92523 0.380343 0 0 1
326 6 1 0 0.597828 0.940375 0.392454 0 0 1
327 6 1 0 0.616303 0.953379 0.39119 0 0 1
328 6 1 0 0.620535 0.931626 0.398999 0 0 1
329 6 1 0 0.611225 0.911155 0.393064 0 0 1
330 6 1 0 0.622117 0.894123 0.408218 0 0 1
331 6 1 0 0.611202 0.885378 0.428131 0 0 1
332 6 1 0 0.609932 0.862376 0.435518 0 0 1
333 6 1 0 0.608378 0.839274 0.438897 0 0 1
334 6 1 0 0.629006 0.851012 0.445218 0 0 1
335 6 1 0 0.643568 0.86985 0.448447 0 0 1
336 6 1 0 0.642131 0.890281 0.459064 0 0 1
337 6 1 0 0.652793 0.890649 0.436646 0 0 1
338 6 1 0 0.645015 0.90435 0.419765 0 0 1
339 6 1 0 0.622514 0.911925 0.424389 0 0 1
340 6 1 0 0.601827 0.921551 0.417636 0 0 1
341 6 1 0 0.596474 0.900105 0.4139 0 0 1
342 6 1 0 0.582785 0.904024 0.395409 0 0 1
343 6 1 0 0.578014 0.925601 0.403627 0 0 1
344 6 1 0 0.568169 0.944093 0.393876 0 0 1
345 6 1 0 0.548082 0.945682 0.407774 0 0 1
346 6 1 0 0.532897 0.956966 0.423488 0 0 1
347 6 1 0 0.5532 0.970871 0.423402 0 0 1
348 6 1 0 0.53982 0.979544 0.43986 0 0 1
349 6 1 0 0.531437 0.958895 0.451044 0 0 1
350 6 1 0 0.552773 0.958514 0.445166 0 0 1
351 6 1 0 0.576263 0.962257 0.444825 0 0 1
352 6 1 0 0.574506 0.963392 0.46838 0 0 1
353 6 1 0 0.572188 0.93978 0.470535 0 0 1
354 6 1 0 0.554305 0.936681 0.487654 0 0 1
355 6 1 0 0.539506 0.943558 0.471957 0 0 1
356 6 1 0 0.542418 0.928844 0.452045 0 0 1
357 6 1 0 0.540387 0.931221 0.428813 0 0 1
358 6 1 0 0.51971 0.937804 0.418979 0 0 1
359 6 1 0 0.496232 0.936914 0.419691 0 0 1
360 6 1 0 0.507939 0.918568 0.43142 0 0 1
361 7 1 0 0.964687 0.2305 0.944708 0 1 0
362 7 1 0 0.944996 0.221894 0.952765 0 1 0
363 7 1 0 0.93248 0.221258 0.972732 0 1 0
364 7 1 0 0.948247 0.23404 0.984287 0 1 0
365 7 1 0 0.962339 0.243864 0.999448 0 1 0
366 7 1 0 0.944472 0.259522 0.000534729 0 1 1
367 7 1 0 0.933966 0.280456 0.00438075 0 1 1
368 7 1 0 0.916832 0.266639 0.991669 0 1 0
369 7 1 0 0.935761 0.275525 0.978864 0 1 0
370 7 1 0 0.931954 0.253342 0.978811 0 1 0
371 7 1 0 0.913468 0.259788 0.96734 0 1 0
372 7 1 0 0.923899 0.244426 0.954029 0 1 0
373 7 1 0 0.945892 0.251576 0.951942 0 1 0
374 7 1 0 0.956892 0.255116 0.970771 0 1 0
375 7 1 0 0.976346 0.244421 0.978574 0 1 0
376 7 1 0 0.979279 0.221146 0.985673 0 1 0
377 7 1 0 0.996607 0.23193 0.973038 0 1 0
378 7 1 0 0.998413 0.21116 0.960935 0 1 0
379 7 1 0 0.98906 0.189799 0.956694 0 1 0
380 7 1 0 0.991872 0.168176 0.95972 0 1 0
381 7 1 0 0.00153608 0.153296 0.944386 1 1 0
382 7 1 0 0.0197253 0.162321 0.934188 1 1 0
383 7 1 0 0.0156212 0.181586 0.919448 1 1 0
384 7 1 0 0.00322004 0.20106 0.913513 1 1 0
385 7 1 0 0.0084384 0.197202 0.937518 1 1 0
386 7 1 0 0.00755782 0.221214 0.931881 1 1 0
387 7 1 0 0.992084 0.233157 0.946513 0 1 0
388 7 1 0 0.981088 0.247398 0.932557 0 1 0
389 7 1 0 0.974921 0.263067 0.948263 0 1 0
390 7 1 0 0.975317 0.280246 0.931278 0 1 0
391 7 1 0 0.953732 0.270538 0.926256 0 1 0
392 7 1 0 0.932253 0.261386 0.934552 0 1 0
393 7 1 0 0.919479 0.24451 0.925593 0 1 0
394 7 1 0 0.93701 0.231229 0.929132 0 1 0
395 7 1 0 0.956732 0.240248 0.922634 0 1 0
396 7 1 0 0.94665 0.231136 0.903113 0 1 0
397 7 1 0 0.967491 0.231262 0.892611 0 1 0
398 7 1 0 0.961998 0.21298 0.880187 0 1 0
399 7 1 0 0.95624 0.195528 0.895943 0 1 0
400 7 1 0 0.954182 0.180361 0.913656 0 1 0
401 7 1 0 0.941421 0.168487 0.929381 0 1 0
402 7 1 0 0.94889 0.148461 0.918641 0 1 0
403 7 1 0 0.961557 0.147139 0.898452 0 1 0
404 7 1 0 0.974919 0.132889 0.910228 0 1 0
405 7 1 0 0.978304 0.150732 0.925369 0 1 0
406 7 1 0 0.972717 0.168032 0.941277 0 1 0
407 7 1 0 0.962991 0.149221 0.954091 0 1 0
408 7 1 0 0.939947 0.147678 0.947893 0 1 0
409 7 1 0 0.943276 0.126886 0.936315 0 1 0
410 7 1 0 0.965244 0.127763 0.930522 0 1 0
411 7 1 0 0.988621 0.126655 0.933599 0 1 0
412 7 1 0 0.999494 0.133129 0.913094 0 1 0
413 7 1 0 0.0151509 0.12091 0.900202 1 1 0
414 7 1 0 0.00985963 0.107808 0.880658 1 1 0
415 7 1 0 0.987104 0.108553 0.872021 0 1 0
416 7 1 0 0.999611 0.104104 0.854154 0 1 0
417 7 1 0 0.98021 0.102074 0.84191 0 1 0
418 7 1 0 0.971071 0.0842341 0.854746 0 1 0
419 7 1 0 0.958425 0.104647 0.861947 0 1 0
420 7 1 0 0.956496 0.120508 0.84539 0 1 0
421 8 1 0 0.72414 0.632921 0.656381 0 0 0
422 8 1 0 0.706125 0.64845 0.65466 0 0 0
423 8 1 0 0.725197 0.661247 0.646873 0 0 0
424 8 1 0 0.736373 0.642714 0.636782 0 0 0
425 8 1 0 0.71564 0.636569 0.630056 0 0 0
426 8 1 0 0.715031 0.612439 0.638642 0 0 0
427 8 1 0 0.736469 0.608711 0.649647 0 0 0
428 8 1 0 0.719612 0.594343 0.659289 0 0 0
429 8 1 0 0.73476 0.577909 0.665715 0 0 0
430 8 1 0 0.735468 0.558144 0.651755 0 0 0
431 8 1 0 0.71319 0.564596 0.653492 0 0 0
432 8 1 0 0.691823 0.56718 0.662665 0 0 0
433 8 1 0 0.691651 0.566323 0.639365 0 0 0
434 8 1 0 0.699093 0.58743 0.640586 0 0 0
435 8 1 0 0.679571 0.59962 0.647069 0 0 0
436 8 1 0 0.66713 0.580136 0.65018 0 0 0
437 8 1 0 0.66084 0.571563 0.670406 0 0 0
438 8 1 0 0.680491 0.575742 0.683975 0 0 0
439 8 1 0 0.686475 0.55288 0.684353 0 0 0
440 8 1 0 0.670205 0.544958 0.667981 0 0 0
441 8 1 0 0.69251 0.541281 0.662129 0 0 0
442 8 1 0 0.695025 0.522901 0.647581 0 0 0
443 8 1 0 0.688121 0.541982 0.632214 0 0 0
444 8 1 0 0.668653 0.539893 0.618836 0 0 0
445 8 1 0 0.668615 0.526752 0.638855 0 0 0
446 8 1 0 0.682012 0.519026 0.620423 0 0 0
447 8 1 0 0.671325 0.497936 0.609236 0 0 0
448 8 1 0 0.656401 0.48134 0.60872 0 0 0
449 8 1 0 0.643961 0.461577 0.605283 0 0 0
450 8 1 0 0.655376 0.455131 0.624212 0 0 0
451 8 1 0 0.671148 0.472712 0.62826 0 0 0
452 8 1 0 0.679735 0.454657 0.640455 0 0 0
453 8 1 0 0.664748 0.460098 0.656858 0 0 0
454 8 1 0 0.642966 0.452432 0.648617 0 0 0
455 8 1 0 0.626927 0.453811 0.633054 0 0 0
456 8 1 0 0.635678 0.438876 0.618406 0 0 0
457 8 1 0 0.65529 0.430512 0.626749 0 0 0
458 8 1 0 0.646242 0.408267 0.618453 0 0 0
459 8 1 0 0.632233 0.392677 0.630302 0 0 0
460 8 1 0 0.611139 0.397545 0.639625 0 0 0
461 8 1 0 0.59127 0.395213 0.650739 0 0 0
462 8 1 0 0.590233 0.375726 0.661835 0 0 0
463 8 1 0 0.568291 0.367505 0.667459 0 0 0
464 8 1 0 0.549203 0.359553 0.67868 0 0 0
465 8 1 0 0.550092 0.347309 0.699539 0 0 0
466 8 1 0 0.567435 0.349095 0.714023 0 0 0
467 8 1 0 0.581281 0.334783 0.726417 0 0 0
468 8 1 0 0.588786 0.336091 0.704463 0 0 0
469 8 1 0 0.591695 0.359192 0.706499 0 0 0
470 8 1 0 0.609118 0.369421 0.695937 0 0 0
471 8 1 0 0.60743 0.389798 0.683645 0 0 0
472 8 1 0 0.586129 0.381171 0.693678 0 0 0
473 8 1 0 0.56746 0.373945 0.707619 0 0 0
474 8 1 0 0.551239 0.381467 0.722376 0 0 0
475 8 1 0 0.552187 0.39747 0.739377 0 0 0
476 8 1 0 0.555996 0.388619 0.76094 0 0 0
477 8 1 0 0.536321 0.377395 0.760018 0 0 0
478 8 1 0 0.516933 0.38777 0.751458 0 0 0
479 8 1 0 0.520063 0.40908 0.741853 0 0 0
480 8 1 0 0.504475 0.425267 0.750085 0 0 0
481 9 1 0 0.423176 0.352351 0.905204 1 1 0
482 9 1 0 0.4094 0.344196 0.889814 1 1 0
483 9 1 0 0.402964 0.332077 0.908928 1 1 0
484 9 1 0 0.416394 0.339787 0.927432 1 1 0
485 9 1 0 0.427367 0.323539 0.913559 1 1 0
486 9 1 0 0.410017 0.31306 0.926015 1 1 0
487 9 1 0 0.401672 0.304625 0.945825 1 1 0
488 9 1 0 0.382516 0.317567 0.949201 1 1 0
489 9 1 0 0.374554 0.295816 0.945088 1 1 0
490 9 1 0 0.389425 0.281034 0.955889 1 1 0
491 9 1 0 0.373581 0.264063 0.961128 1 1 0
492 9 1 0 0.367763 0.243494 0.971706 1 1 0
493 9 1 0 0.390382 0.24385 0.964207 1 1 0
494 9 1 0 0.38067 0.223411 0.957441 1 1 0
495 9 1 0 0.365325 0.209426 0.948018 1 1 0
496 9 1 0 0.340837 0.20772 0.942589 1 1 0
497 9 1 0 0.34443 0.225247 0.960688 1 1 0
498 9 1 0 0.337949 0.214058 0.980042 1 1 0
499 9 1 0 0.319413 0.21494 0.99404 1 1 0
500 9 1 0 0.331408 0.201718 0.00801661 1 1 1
501 9 1 0 0.354172 0.197083 0.00394452 1 1 1
502 9 1 0 0.349847 0.176062 0.992684 1 1 0
503 9 1 0 0.327809 0.182004 0.984724 1 1 0
504 9 1 0 0.319695 0.197252 0.969874 1 1 0
505 9 1 0 0.298384 0.200893 0.963055 1 1 0
506 9 1 0 0.276409 0.20256 0.955006 1 1 0
507 9 1 0 0.259313 0.214537 0.96735 1 1 0
508 9 1 0 0.267009 0.199007 0.984048 1 1 0
509 9 1 0 0.255583 0.178411 0.994091 1 1 0
510 9 1 0 0.230845 0.177631 0.000255473 1 1 1
511 9 1 0 0.212139 0.166223 0.00999348 1 1 1
512 9 1 0 0.214304 0.172286 0.0327441 1 1 1
513 9 1 0 0.20815 0.194138 0.0285471 1 1 1
514 9 1 0 0.212764 0.207393 0.00840264 1 1 1
515 9 1 0 0.232636 0.207226 0.0219153 1 1 1
516 9 1 0 0.217091 0.216829 0.0365198 1 1 1
517 9 1 0 0.208678 0.237721 0.0447534 1 1 1
518 9 1 0 0.189199 0.239554 0.0322276 1 1 1
519 9 1 0 0.196486 0.230763 0.0118379 1 1 1
520 9 1 0 0.204419 0.246701 0.996016 1 1 0
521 9 1 0 0.20772 0.252021 0.974252 1 1 0
522 9 1 0 0.188055 0.263014 0.975559 1 1 0
523 9 1 0 0.205023 0.276413 0.966937 1 1 0
524 9 1 0 0.216713 0.273803 0.985217 1 1 0
525 9 1 0 0.228024 0.293222 0.977134 1 1 0
526 9 1 0 0.25052 0.302652 0.977284 1 1 0
527 9 1 0 0.270837 0.292001 0.974633 1 1 0
528 9 1 0 0.29053 0.282534 0.981583 1 1 0
529 9 1 0 0.27404 0.27316 0.993595 1 1 0
530 9 1 0 0.275047 0.25809 0.0126371 1 1 1
531 9 1 0 0.267513 0.2349 0.0144989 1 1 1
532 9 1 0 0.282731 0.21769 0.0176043 1 1 1
533 9 1 0 0.29319 0.234498 0.0314678 1 1 1
534 9 1 0 0.29572 0.241765 0.0542162 1 1 1
535 9 1 0 0.284222 0.22014 0.0504089 1 1 1
536 9 1 0 0.267259 0.216831 0.0654775 1 1 1
537 9 1 0 0.278887 0.206164 0.0828552 1 1 1
538 9 1 0 0.265352 0.203723 0.103803 1 1 1
539 9 1 0 0.25557 0.219388 0.0905569 1 1 1
540 9 1 0 0.233888 0.22793 0.0966902 1 1 1
541 10 1 0 0.761283 0.574617 0.0881565 0 0 1
542 10 1 0 0.74804 0.565314 0.108014 0 0 1
543 10 1 0 0.757635 0.569077 0.128173 0 0 1
544 10 1 0 0.774809 0.555086 0.117649 0 0 1
545 10 1 0 0.783586 0.574442 0.10984 0 0 1
546 10 1 0 0.79104 0.554286 0.0985221 0 0 1
547 10 1 0 0.787844 0.535829 0.0816739 0 0 1
548 10 1 0 0.769056 0.545642 0.0898288 0 0 1
549 10 1 0 0.745397 0.545482 0.0930333 0 0 1
550 10 1 0 0.730747 0.529225 0.0851419 0 0 1
551 10 1 0 0.74738 0.51452 0.0965067 0 0 1
552 10 1 0 0.766572 0.520417 0.0811347 0 0 1
553 10 1 0 0.774671 0.507621 0.0985278 0 0 1
554 10 1 0 0.78503 0.496692 0.0794908 0 0 1
555 10 1 0 0.783355 0.472319 0.0732031 0 0 1
556 10 1 0 0.800658 0.457692 0.0696433 0 0 1
557 10 1 0 0.808823 0.478441 0.0596787 0 0 1
558 10 1 0 0.800448 0.499623 0.0540866 0 0 1
559 10 1 0 0.784814 0.483457 0.0455087 0 0 1
560 10 1 0 0.772584 0.4696 0.031152 0 0 1
561 10 1 0 0.750721 0.46229 0.0350149 0 0 1
562 10 1 0 0.765582 0.445115 0.0434906 0 0 1
563 10 1 0 0.755244 0.42658 0.0316802 0 0 1
564 10 1 0 0.748566 0.436616 0.0118412 0 0 1
565 10 1 0 0.72826 0.44327 0.003886 0 0 1
566 10 1 0 0.723265 0.450295 0.0254942 0 0 1
567 10 1 0 0.729664 0.467605 0.0114838 0 0 1
568 10 1 0 0.705174 0.465706 0.00556255 0 0 1
569 10 1 0 0.689271 0.466249 0.989425 0 0 0
570 10 1 0 0.676866 0.456899 0.00959464 0 0 1
571 10 1 0 0.662011 0.469722 0.997121 0 0 0
572 10 1 0 0.67136 0.484438 0.0139604 0 0 1
573 10 1 0 0.682819 0.492603 0.993809 0 0 0
574 10 1 0 0.699687 0.493413 0.0116576 0 0 1
575 10 1 0 0.720206 0.492261 0.999654 0 0 0
576 10 1 0 0.715344 0.480678 0.979555 0 0 0
577 10 1 0 0.731906 0.493892 0.971605 0 0 0
578 10 1 0 0.736626 0.492935 0.949452 0 0 0
579 10 1 0 0.748223 0.472358 0.951351 0 0 0
580 10 1 0 0.753283 0.449448 0.952983 0 0 0
581 10 1 0 0.757194 0.44605 0.976157 0 0 0
582 10 1 0 0.744475 0.429659 0.986305 0 0 0
583 10 1 0 0.739031 0.408577 0.980242 0 0 0
584 10 1 0 0.717496 0.40016 0.989982 0 0 0
585 10 1 0 0.717551 0.422714 0.988115 0 0 0
586 10 1 0 0.731993 0.416711 0.0065606 0 0 1
587 10 1 0 0.742449 0.394628 0.00253023 0 0 1
588 10 1 0 0.738212 0.38225 0.981106 0 0 0
589 10 1 0 0.726231 0.365634 0.991277 0 0 0
590 10 1 0 0.705765 0.372182 0.997651 0 0 0
591 10 1 0 0.701645 0.375242 0.975388 0 0 0
592 10 1 0 0.715957 0.390616 0.964567 0 0 0
593 10 1 0 0.697523 0.404638 0.970761 0 0 0
594 10 1 0 0.678077 0.416791 0.969469 0 0 0
595 10 1 0 0.676249 0.395583 0.979862 0 0 0
596 10 1 0 0.675093 0.373262 0.983736 0 0 0
597 10 1 0 0.676916 0.373069 0.960092 0 0 0
598 10 1 0 0.666592 0.391465 0.948497 0 0 0
599 10 1 0 0.688416 0.39641 0.945153 0 0 0
600 10 1 0 0.694965 0.388929 0.924059 0 0 0
601 11 1 0 0.104052 0.832076 0.548782 1 0 1
602 11 1 0 0.0797013 0.83349 0.552937 1 0 1
603 11 1 0 0.0773404 0.814194 0.539585 1 0 1
604 11 1 0 0.0967802 0.816329 0.526881 1 0 1
605 11 1 0 0.0966914 0.820669 0.503299 1 0 1
606 11 1 0 0.107747 0.837255 0.516586 1 0 1
607 11 1 0 0.121918 0.82468 0.528954 1 0 1
608 11 1 0 0.123681 0.84722 0.536088 1 0 1
609 11 1 0 0.144967 0.843841 0.54604 1 0 1
610 11 1 0 0.147262 0.820348 0.547972 1 0 1
611 11 1 0 0.146443 0.822232 0.571016 1 0 1
612 11 1 0 0.123703 0.824389 0.566599 1 0 1
613 11 1 0 0.114538 0.810829 0.549558 1 0 1
614 11 1 0 0.11454 0.797292 0.530514 1 0 1
615 11 1 0 0.13759 0.80175 0.531199 1 0 1
616 11 1 0 0.139787 0.779071 0.531241 1 0 1
617 11 1 0 0.130731 0.759333 0.523837 1 0 1
618 11 1 0 0.139331 0.739453 0.516162 1 0 1
619 11 1 0 0.118279 0.731202 0.510378 1 0 1
620 11 1 0 0.124636 0.748881 0.496114 1 0 1
621 11 1 0 0.107504 0.745591 0.480791 1 0 1
622 11 1 0 0.0922319 0.761318 0.490003 1 0 1
623 11 1 0 0.108831 0.766846 0.505834 1 0 1
624 11 1 0 0.0860998 0.764233 0.513365 1 0 1
625 11 1 0 0.0715224 0.773008 0.496809 1 0 1
626 11 1 0 0.0655734 0.750533 0.490521 1 0 1
627 11 1 0 0.0825902 0.733727 0.490431 1 0 1
628 11 1 0 0.0932075 0.739558 0.509398 1 0 1
629 11 1 0 0.08737 0.735735 0.53105 1 0 1
630 11 1 0 0.0675944 0.724071 0.53286 1 0 1
631 11 1 0 0.0776896 0.710129 0.515594 1 0 1
632 11 1 0 0.08242 0.705067 0.538001 1 0 1
633 11 1 0 0.084376 0.688038 0.554502 1 0 1
634 11 1 0 0.061192 0.689748 0.541992 1 0 1
635 11 1 0 0.0483711 0.709405 0.543684 1 0 1
636 11 1 0 0.0293313 0.718128 0.534128 1 0 1
637 11 1 0 0.0255592 0.741356 0.537727 1 0 1
638 11 1 0 0.0435802 0.756003 0.534783 1 0 1
639 11 1 0 0.0563358 0.739376 0.547963 1 0 1
640 11 1 0 0.0429925 0.749102 0.565198 1 0 1
641 11 1 0 0.0653015 0.757537 0.564702 1 0 1
642 11 1 0 0.0521562 0.773943 0.550822 1 0 1
643 11 1 0 0.0726965 0.777939 0.540719 1 0 1
644 11 1 0 0.0895845 0.768621 0.554541 1 0 1
645 11 1 0 0.105843 0.77103 0.535793 1 0 1
646 11 1 0 0.117351 0.783553 0.552429 1 0 1
647 11 1 0 0.097485 0.792109 0.558968 1 0 1
648 11 1 0 0.0763609 0.787175 0.565921 1 0 1
649 11 1 0 0.0883916 0.794706 0.585421 1 0 1
650 11 1 0 0.0684274 0.788881 0.596071 1 0 1
651 11 1 0 0.0527465 0.773875 0.608433 1 0 1
652 11 1 0 0.0413616 0.76778 0.629426 1 0 1
653 11 1 0 0.0316953 0.788509 0.626283 1 0 1
654 11 1 0 0.023596 0.80451 0.611672 1 0 1
655 11 1 0 0.0205229 0.827755 0.607491 1 0 1
656 11 1 0 0.0354981 0.82251 0.591487 1 0 1
657 11 1 0 0.017707 0.813301 0.581088 1 0 1
658 11 1 0 0.00271664 0.809475 0.563361 1 0 1
659 11 1 0 0.991308 0.821348 0.580322 0 0 1
660 11 1 0 0.00144051 0.814813 0.600141 1 0 1
661 12 1 0 0.878129 0.0168824 0.22414 0 1 1
662 12 1 0 0.892763 0.00494212 0.239285 0 1 1
663 12 1 0 0.899872 0.00416629 0.261962 0 1 1
664 12 1 0 0.915279 0.991296 0.249541 0 0 1
665 12 1 0 0.915529 0.980473 0.27136 0 0 1
666 12 1 0 0.924837 0.999103 0.280878 0 0 1
667 12 1 0 0.935353 0.00741717 0.300411 0 1 1
668 12 1 0 0.942204 0.0200228 0.318263 0 1 1
669 12 1 0 0.96508 0.0200503 0.324159 0 1 1
670 12 1 0 0.976091 0.0345933 0.308061 0 1 1
671 12 1 0 0.988307 0.0183054 0.318892 0 1 1
672 12 1 0 0.989747 0.0116441 0.29698 0 1 1
673 12 1 0 0.969076 0.00391086 0.301266 0 1 1
674 12 1 0 0.968879 0.987323 0.284051 0 0 1
675 12 1 0 0.948021 0.986188 0.295713 0 0 1
676 12 1 0 0.940451 0.980695 0.275037 0 0 1
677 12 1 0 0.929387 0.964283 0.288269 0 0 1
678 12 1 0 0.947412 0.950024 0.28542 0 0 1
679 12 1 0 0.959527 0.963369 0.269802 0 0 1
680 12 1 0 0.98163 0.965138 0.262042 0 0 1
681 12 1 0 0.969898 0.983854 0.254648 0 0 1
682 12 1 0 0.976135 0.00416265 0.264223 0 1 1
683 12 1 0 0.971935 0.023835 0.277129 0 1 1
684 12 1 0 0.954947 0.00830209 0.27944 0 1 1
685 12 1 0 0.955096 0.0249901 0.296551 0 1 1
686 12 1 0 0.947389 0.0457011 0.286595 0 1 1
687 12 1 0 0.926123 0.0535189 0.284591 0 1 1
688 12 1 0 0.922473 0.0356362 0.298372 0 1 1